    -----------------------------------------------------------------------
          Psi4: An Open-Source Ab Initio Electronic Structure Package
                              Psi4 0.1.81 Driver

                          Git: Rev {master} 2996acf 

    J. M. Turney, A. C. Simmonett, R. M. Parrish, E. G. Hohenstein,
    F. A. Evangelista, J. T. Fermann, B. J. Mintz, L. A. Burns, J. J. Wilke,
    M. L. Abrams, N. J. Russ, M. L. Leininger, C. L. Janssen, E. T. Seidl,
    W. D. Allen, H. F. Schaefer, R. A. King, E. F. Valeev, C. D. Sherrill,
    and T. D. Crawford, WIREs Comput. Mol. Sci. 2, 556-565 (2012)
    (doi: 10.1002/wcms.93)

                         Additional Contributions by
    A. E. DePrince, M. Saitow, U. Bozkaya, A. Yu. Sokolov
    -----------------------------------------------------------------------


    Psi4 started on: 05-23-2015  06:06:56 PM PDT

    Process ID:  22304
    PSI4DATADIR: /home/matt/anaconda/share/psi
    Memory level set to 256.000 MB

  ==> Input File <==

--------------------------------------------------------------------------
# NOT A REAL IUPAC NAME SMILES: CO	tests/data/methanol1.xyz

molecule {
  #charge multiplicity
  0 1
  C0	0.000000	0.000000	0.000000
  O0	1.367000	0.000000	0.000000
  H0	-0.356660	0.310810	0.959740
  H0	-0.356660	-0.986560	-0.210680
  H0	-0.356660	0.675730	-0.749040
  H0	1.690330	-0.612590	0.679040
}

set globals {
  scf_type pk
  reference RHF
  
  maxiter 999
}

basis {
  assign C0 C0
  assign O0 O0
  assign H0 H0
  #C 3-21G
  [ C0 ]
  cartesian
  ****
  C     0 
  S   3   1.00
      172.2560000              0.0617669        
       25.9109000              0.3587940        
        5.5333500              0.7007130        
  SP   2   1.00
        3.6649800             -0.3958970              0.2364600        
        0.7705450              1.2158400              0.8606190        
  SP   1   1.00
        0.1958570              1.0000000              1.0000000        
  ****
  #O 3-21G
  [ O0 ]
  cartesian
  ****
  O     0 
  S   3   1.00
      322.0370000              0.0592394        
       48.4308000              0.3515000        
       10.4206000              0.7076580        
  SP   2   1.00
        7.4029400             -0.4044530              0.2445860        
        1.5762000              1.2215600              0.8539550        
  SP   1   1.00
        0.3736840              1.0000000              1.0000000        
  ****
  #H 3-21G
  [ H0 ]
  cartesian
  ****
  H     0 
  S   2   1.00
        5.4471780              0.1562850        
        0.8245470              0.9046910        
  S   1   1.00
        0.1831920              1.0000000        
  ****
}

energy('scf')--------------------------------------------------------------------------

*** tstart() called on mbe-laptop
*** at Sat May 23 18:06:56 2015


         ---------------------------------------------------------
                                   SCF
            by Justin Turney, Rob Parrish, and Andy Simmonett
                              RHF Reference
                        1 Threads,    256 MiB Core
         ---------------------------------------------------------

  ==> Geometry <==

    Molecular point group: c1
    Full point group: C1

    Geometry (in Angstrom), charge = 0, multiplicity = 1:

       Center              X                  Y                   Z       
    ------------   -----------------  -----------------  -----------------
           C         -0.702245105163     0.019278072596    -0.021369171214
           O          0.664754894837     0.019278072596    -0.021369171214
           H         -1.058905105163     0.330088072596     0.938370828786
           H         -1.058905105163    -0.967281927404    -0.232049171214
           H         -1.058905105163     0.695008072596    -0.770409171214
           H          0.988084894837    -0.593311927404     0.657670828786

  Running in c1 symmetry.

  Rotational constants: A =      4.39199  B =      0.88942  C =      0.85507 [cm^-1]
  Rotational constants: A = 131668.60381  B =  26664.05634  C =  25634.37992 [MHz]
  Nuclear repulsion =   41.423425134604038

  Charge       = 0
  Multiplicity = 1
  Electrons    = 18
  Nalpha       = 9
  Nbeta        = 9

  ==> Algorithm <==

  SCF Algorithm Type is PK.
  DIIS enabled.
  MOM disabled.
  Fractional occupation disabled.
  Guess Type is CORE.
  Energy threshold   = 1.00e-06
  Density threshold  = 1.00e-06
  Integral threshold = 0.00e+00

  ==> Primary Basis <==

  Basis Set: ANONYMOUS80
    Number of shells: 18
    Number of basis function: 26
    Number of Cartesian functions: 26
    Spherical Harmonics?: false
    Max angular momentum: 1

  ==> Pre-Iterations <==

   -------------------------------------------------------
    Irrep   Nso     Nmo     Nalpha   Nbeta   Ndocc  Nsocc
   -------------------------------------------------------
     A         26      26       0       0       0       0
   -------------------------------------------------------
    Total      26      26       9       9       9       0
   -------------------------------------------------------

  Starting with a DF guess...

 OEINTS: Overlap, kinetic, potential, dipole, and quadrupole integrals
         stored in file 35.

  ==> Integral Setup <==

  ==> DFJK: Density-Fitted J/K Matrices <==

    J tasked:                  Yes
    K tasked:                  Yes
    wK tasked:                  No
    OpenMP threads:              1
    Integrals threads:           1
    Memory (MB):               183
    Algorithm:                Core
    Integral Cache:           NONE
    Schwarz Cutoff:          1E-12
    Fitting Condition:       1E-12

   => Auxiliary Basis Set <=

  Basis Set: 
    Number of shells: 74
    Number of basis function: 262
    Number of Cartesian functions: 262
    Spherical Harmonics?: false
    Max angular momentum: 4

  Minimum eigenvalue in the overlap matrix is 2.7790190809E-02.
  Using Symmetric Orthogonalization.
  SCF Guess: Core (One-Electron) Hamiltonian.

  ==> Iterations <==

                           Total Energy        Delta E     RMS |[F,P]|

   @DF-RHF iter   1:   -97.98570459187948   -9.79857e+01   1.73732e-01 
   @DF-RHF iter   2:   -99.01175379211412   -1.02605e+00   1.21410e-01 DIIS
   @DF-RHF iter   3:  -112.44843153193969   -1.34367e+01   8.58491e-02 DIIS
   @DF-RHF iter   4:  -113.87402431930045   -1.42559e+00   4.17300e-02 DIIS
   @DF-RHF iter   5:  -114.29788563881414   -4.23861e-01   1.76602e-02 DIIS
   @DF-RHF iter   6:  -114.38902799857334   -9.11424e-02   1.91997e-03 DIIS
   @DF-RHF iter   7:  -114.39150043293145   -2.47243e-03   7.39906e-04 DIIS
   @DF-RHF iter   8:  -114.39170352053276   -2.03088e-04   1.89607e-04 DIIS
   @DF-RHF iter   9:  -114.39171819041798   -1.46699e-05   1.99720e-05 DIIS
   @DF-RHF iter  10:  -114.39171840764408   -2.17226e-07   3.40850e-06 DIIS
   @DF-RHF iter  11:  -114.39171841571388   -8.06980e-09   5.46440e-07 DIIS

  DF guess converged.

  ==> Integral Setup <==

 MINTS: Wrapper to libmints.
   by Justin Turney

   Calculation information:
      Number of atoms:                   6
      Number of AO shells:              18
      Number of SO shells:              18
      Number of primitives:             30
      Number of atomic orbitals:        26
      Number of basis functions:        26

      Number of irreps:                  1
      Integral cutoff                 0.00e+00
      Number of functions per irrep: [  26 ]

 OEINTS: Overlap, kinetic, potential, dipole, and quadrupole integrals
         stored in file 35.

      Computing two-electron integrals...done
      Computed 59879 non-zero two-electron integrals.
        Stored in file 33.

	Batch   1 pq = [       0,     351] index = [             0,61776]
  ==> DiskJK: Disk-Based J/K Matrices <==

    J tasked:                  Yes
    K tasked:                  Yes
    wK tasked:                  No
    Memory (MB):               183
    Schwarz Cutoff:          1E-12

   @RHF iter  12:  -114.39179688756644   -7.84719e-05   3.00378e-06 DIIS
   @RHF iter  13:  -114.39179688873193   -1.16549e-09   9.56718e-07 DIIS

  ==> Post-Iterations <==

    Orbital Energies (a.u.)
    -----------------------

    Doubly Occupied:                                                      

       1A    -20.432403     2A    -11.201635     3A     -1.362918  
       4A     -0.925098     5A     -0.684417     6A     -0.631499  
       7A     -0.596674     8A     -0.475555     9A     -0.427042  

    Virtual:                                                              

      10A      0.262764    11A      0.323317    12A      0.358934  
      13A      0.360672    14A      0.449206    15A      0.950793  
      16A      0.957493    17A      0.993777    18A      1.240544  
      19A      1.325332    20A      1.334745    21A      1.376384  
      22A      1.875755    23A      1.883340    24A      1.980493  
      25A      2.144085    26A      3.408056  

    Final Occupation by Irrep:
              A 
    DOCC [     9 ]

  Energy converged.

  @RHF Final Energy:  -114.39179688873193

   => Energetics <=

    Nuclear Repulsion Energy =             41.4234251346040381
    One-Electron Energy =                -238.1560166135227234
    Two-Electron Energy =                  82.3407945901868032
    DFT Exchange-Correlation Energy =       0.0000000000000000
    Empirical Dispersion Energy =           0.0000000000000000
    PCM Polarization Energy =               0.0000000000000000
    EFP Energy =                            0.0000000000000000
    Total Energy =                       -114.3917968887318892

    Alert: EFP and PCM quantities not currently incorporated into SCF psivars.

Properties will be evaluated at   0.000000,   0.000000,   0.000000 Bohr
  ==> Properties <==


Properties computed using the SCF density matrix

  Nuclear Dipole Moment: (a.u.)
     X:    -2.0486      Y:    -0.5019      Z:     0.5564

  Electronic Dipole Moment: (a.u.)
     X:     1.5914      Y:     0.0551      Z:    -0.0611

  Dipole Moment: (a.u.)
     X:    -0.4571      Y:    -0.4468      Z:     0.4953     Total:     0.8087

  Dipole Moment: (Debye)
     X:    -1.1619      Y:    -1.1358      Z:     1.2590     Total:     2.0555


  Saving occupied orbitals to File 180.

*** tstop() called on mbe-laptop at Sat May 23 18:06:57 2015
Module time:
	user time   =       0.46 seconds =       0.01 minutes
	system time =       0.01 seconds =       0.00 minutes
	total time  =          1 seconds =       0.02 minutes
Total time:
	user time   =       0.46 seconds =       0.01 minutes
	system time =       0.01 seconds =       0.00 minutes
	total time  =          1 seconds =       0.02 minutes

*** PSI4 exiting successfully. Buy a developer a beer!
